<?xml version="1.0" encoding="UTF-8"?>

<!-- generated on 10/09/18 14:10:16 by Eclipse SUMO Version 1.0.0
<configuration xmlns:xsi="http://www.w3.org/2001/XMLSchema-instance" xsi:noNamespaceSchemaLocation="http://sumo.dlr.de/xsd/sumoConfiguration.xsd">

    <input>
        <net-file value="tIntersection.net.xml"/>
        <route-files value="tIntersection.rou.xml"/>
        <additional-files value="tIntersection_tl.add.xml"/>
    </input>

</configuration>
-->

<meandata xmlns:xsi="http://www.w3.org/2001/XMLSchema-instance" xsi:noNamespaceSchemaLocation="http://sumo.dlr.de/xsd/meandata_file.xsd">
    <interval begin="0.00" end="4831.00" id="Emission Data">
        <edge id="EW_1" sampledSeconds="17664.78" traveltime="22.08" overlapTraveltime="22.81" density="39.40" occupancy="9.68" waitingTime="6785.00" speed="4.29" departed="817" arrived="0" entered="0" left="817" laneChangedFrom="396" laneChangedTo="396"/>
        <edge id="EW_2" sampledSeconds="6611.90" traveltime="7.78" overlapTraveltime="8.17" density="14.75" occupancy="3.49" waitingTime="0.00" speed="11.98" departed="0" arrived="818" entered="818" left="0" laneChangedFrom="0" laneChangedTo="0"/>
        <edge id="NS_1" sampledSeconds="40923.34" traveltime="50.71" overlapTraveltime="51.37" density="94.54" occupancy="46.90" waitingTime="26760.00" speed="1.84" departed="842" arrived="0" entered="0" left="842" laneChangedFrom="0" laneChangedTo="0"/>
        <edge id="SN_2" sampledSeconds="6614.16" traveltime="7.77" overlapTraveltime="8.16" density="15.28" occupancy="7.17" waitingTime="0.00" speed="11.60" departed="0" arrived="819" entered="819" left="0" laneChangedFrom="0" laneChangedTo="0"/>
        <edge id="WE_1" sampledSeconds="67071.31" traveltime="93.48" overlapTraveltime="94.22" density="149.61" occupancy="37.20" waitingTime="49093.12" speed="1.04" departed="751" arrived="0" entered="0" left="751" laneChangedFrom="398" laneChangedTo="398"/>
        <edge id="WE_2" sampledSeconds="6096.94" traveltime="7.58" overlapTraveltime="7.97" density="13.60" occupancy="3.22" waitingTime="0.00" speed="12.28" departed="0" arrived="773" entered="773" left="0" laneChangedFrom="0" laneChangedTo="0"/>
    </interval>
</meandata>
